LAMMPS data file. CGCMM style. atom_style full generated by VMD/TopoTools v1.5 on Wed Sep 20 15:32:20 -0400 2017
 609 atoms
 335 bonds
 172 angles
 3 dihedrals
 0 impropers
 7 atom types
 4 bond types
 4 angle types
 1 dihedral types
 0 improper types
 0.00000000 16.83180000  xlo xhi
 0.00000000 14.57680000  ylo yhi
 0.00000000 29.535035  zlo zhi

# Pair Coeffs
#
# 1  O
# 2  Pt
# 3  X

Bond Coeffs

1  450.0 0.9572 # Hw_Ow
2  340.0 1.0900 # HC-CT
3  320.0 1.4100 # CT-OH
4  553.0 0.9450 # HO-OH

Angle Coeffs

1  55.00  104.52  # Hw_Ow_Hw
2  33.00  107.80  # HC-CT-HC
3  35.00  109.50  # HC-CT-OH
4  55.00  108.50  # CT-OH-HO

Dihedral Coeffs

1  0.0000  0.0000  0.4500  0.0000  # HC-CT-OH-HO


Masses

 1   1.007940  # H_w
 2   15.999400  # O_w
 3   1.007940  # H_h
 4   1.007940  # H_c 
 5    12.010700  # C
 6   15.999400  # Oc    
 7    195.084000  # Pt


 Atoms

1 1 7 0.000000 0.000000 0.000000 0.000000 # Pt 
2 1 7 0.000000 1.402649 2.429471 0.000000 # Pt 
3 1 7 0.000000 2.805306 0.000000 0.000000 # Pt 
4 1 7 0.000000 4.207950 2.429471 0.000000 # Pt 
5 1 7 0.000000 2.805306 3.239286 2.290528 # Pt 
6 1 7 0.000000 1.402649 0.809821 2.290528 # Pt 
7 1 7 0.000000 0.000000 3.239286 2.290528 # Pt 
8 1 7 0.000000 4.207950 0.809821 2.290528 # Pt 
9 1 7 0.000000 4.207950 4.049114 4.581056 # Pt 
10 1 7 0.000000 2.805306 1.619643 4.581056 # Pt 
11 1 7 0.000000 1.402649 4.049114 4.581056 # Pt 
12 1 7 0.000000 0.000000 1.619643 4.581056 # Pt 
13 1 7 0.000000 5.610594 0.000000 0.000000 # Pt 
14 1 7 0.000000 11.221206 0.000000 0.000000 # Pt 
15 1 7 0.000000 7.013256 2.429471 0.000000 # Pt 
16 1 7 0.000000 12.623850 2.429471 0.000000 # Pt 
17 1 7 0.000000 8.415900 0.000000 0.000000 # Pt 
18 1 7 0.000000 14.026495 0.000000 0.000000 # Pt 
19 1 7 0.000000 9.818545 2.429471 0.000000 # Pt 
20 1 7 0.000000 15.429155 2.429471 0.000000 # Pt 
21 1 7 0.000000 8.415900 3.239286 2.290528 # Pt 
22 1 7 0.000000 14.026495 3.239286 2.290528 # Pt 
23 1 7 0.000000 7.013256 0.809821 2.290528 # Pt 
24 1 7 0.000000 12.623850 0.809821 2.290528 # Pt 
25 1 7 0.000000 5.610594 3.239286 2.290528 # Pt 
26 1 7 0.000000 11.221206 3.239286 2.290528 # Pt 
27 1 7 0.000000 9.818545 0.809821 2.290528 # Pt 
28 1 7 0.000000 15.429155 0.809821 2.290528 # Pt 
29 1 7 0.000000 9.818545 4.049114 4.581056 # Pt 
30 1 7 0.000000 15.429155 4.049114 4.581056 # Pt 
31 1 7 0.000000 8.415900 1.619643 4.581056 # Pt 
32 1 7 0.000000 14.026495 1.619643 4.581056 # Pt 
33 1 7 0.000000 7.013256 4.049114 4.581056 # Pt 
34 1 7 0.000000 12.623850 4.049114 4.581056 # Pt 
35 1 7 0.000000 5.610594 1.619643 4.581056 # Pt 
36 1 7 0.000000 11.221206 1.619643 4.581056 # Pt 
37 1 7 0.000000 0.000000 4.858928 0.000000 # Pt 
38 1 7 0.000000 0.000000 9.717872 0.000000 # Pt 
39 1 7 0.000000 1.402649 7.288400 0.000000 # Pt 
40 1 7 0.000000 1.402649 12.147329 0.000000 # Pt 
41 1 7 0.000000 2.805306 4.858928 0.000000 # Pt 
42 1 7 0.000000 2.805306 9.717872 0.000000 # Pt 
43 1 7 0.000000 4.207950 7.288400 0.000000 # Pt 
44 1 7 0.000000 4.207950 12.147329 0.000000 # Pt 
45 1 7 0.000000 2.805306 8.098228 2.290528 # Pt 
46 1 7 0.000000 2.805306 12.957158 2.290528 # Pt 
47 1 7 0.000000 1.402649 5.668757 2.290528 # Pt 
48 1 7 0.000000 1.402649 10.527685 2.290528 # Pt 
49 1 7 0.000000 0.000000 8.098228 2.290528 # Pt 
50 1 7 0.000000 0.000000 12.957158 2.290528 # Pt 
51 1 7 0.000000 4.207950 5.668757 2.290528 # Pt 
52 1 7 0.000000 4.207950 10.527685 2.290528 # Pt 
53 1 7 0.000000 4.207950 8.908043 4.581056 # Pt 
54 1 7 0.000000 4.207950 13.766972 4.581056 # Pt 
55 1 7 0.000000 2.805306 6.478571 4.581056 # Pt 
56 1 7 0.000000 2.805306 11.337515 4.581056 # Pt 
57 1 7 0.000000 1.402649 8.908043 4.581056 # Pt 
58 1 7 0.000000 1.402649 13.766972 4.581056 # Pt 
59 1 7 0.000000 0.000000 6.478571 4.581056 # Pt 
60 1 7 0.000000 0.000000 11.337515 4.581056 # Pt 
61 1 7 0.000000 5.610594 4.858928 0.000000 # Pt 
62 1 7 0.000000 5.610594 9.717872 0.000000 # Pt 
63 1 7 0.000000 11.221206 4.858928 0.000000 # Pt 
64 1 7 0.000000 11.221206 9.717872 0.000000 # Pt 
65 1 7 0.000000 7.013256 7.288400 0.000000 # Pt 
66 1 7 0.000000 7.013256 12.147329 0.000000 # Pt 
67 1 7 0.000000 12.623850 7.288400 0.000000 # Pt 
68 1 7 0.000000 12.623850 12.147329 0.000000 # Pt 
69 1 7 0.000000 8.415900 4.858928 0.000000 # Pt 
70 1 7 0.000000 8.415900 9.717872 0.000000 # Pt 
71 1 7 0.000000 14.026495 4.858928 0.000000 # Pt 
72 1 7 0.000000 14.026495 9.717872 0.000000 # Pt 
73 1 7 0.000000 9.818545 7.288400 0.000000 # Pt 
74 1 7 0.000000 9.818545 12.147329 0.000000 # Pt 
75 1 7 0.000000 15.429155 7.288400 0.000000 # Pt 
76 1 7 0.000000 15.429155 12.147329 0.000000 # Pt 
77 1 7 0.000000 8.415900 8.098228 2.290528 # Pt 
78 1 7 0.000000 8.415900 12.957158 2.290528 # Pt 
79 1 7 0.000000 14.026495 8.098228 2.290528 # Pt 
80 1 7 0.000000 14.026495 12.957158 2.290528 # Pt 
81 1 7 0.000000 7.013256 5.668757 2.290528 # Pt 
82 1 7 0.000000 7.013256 10.527685 2.290528 # Pt 
83 1 7 0.000000 12.623850 5.668757 2.290528 # Pt 
84 1 7 0.000000 12.623850 10.527685 2.290528 # Pt 
85 1 7 0.000000 5.610594 8.098228 2.290528 # Pt 
86 1 7 0.000000 5.610594 12.957158 2.290528 # Pt 
87 1 7 0.000000 11.221206 8.098228 2.290528 # Pt 
88 1 7 0.000000 11.221206 12.957158 2.290528 # Pt 
89 1 7 0.000000 9.818545 5.668757 2.290528 # Pt 
90 1 7 0.000000 9.818545 10.527685 2.290528 # Pt 
91 1 7 0.000000 15.429155 5.668757 2.290528 # Pt 
92 1 7 0.000000 15.429155 10.527685 2.290528 # Pt 
93 1 7 0.000000 9.818545 8.908043 4.581056 # Pt 
94 1 7 0.000000 9.818545 13.766972 4.581056 # Pt 
95 1 7 0.000000 15.429155 8.908043 4.581056 # Pt 
96 1 7 0.000000 15.429155 13.766972 4.581056 # Pt 
97 1 7 0.000000 8.415900 6.478571 4.581056 # Pt 
98 1 7 0.000000 8.415900 11.337515 4.581056 # Pt 
99 1 7 0.000000 14.026495 6.478571 4.581056 # Pt 
100 1 7 0.000000 14.026495 11.337515 4.581056 # Pt 
101 1 7 0.000000 7.013256 8.908043 4.581056 # Pt 
102 1 7 0.000000 7.013256 13.766972 4.581056 # Pt 
103 1 7 0.000000 12.623850 8.908043 4.581056 # Pt 
104 1 7 0.000000 12.623850 13.766972 4.581056 # Pt 
105 1 7 0.000000 5.610594 6.478571 4.581056 # Pt 
106 1 7 0.000000 5.610594 11.337515 4.581056 # Pt 
107 1 7 0.000000 11.221206 6.478571 4.581056 # Pt 
108 1 7 0.000000 11.221206 11.337515 4.581056 # Pt 
109 1 2 -0.83400 15.95799393	8.53397298	25.37281019   # O_w
110 1 2 -0.83400 1.85610991	5.68983523	13.95235053       # O_w
111 1 2 -0.83400 16.38213846	7.34084733	15.66006626   # O_w
112 1 2 -0.83400 16.08323936	4.18615085	12.98484186   # O_w
113 1 2 -0.83400 5.73992994	0.59458038	16.76745286       # O_w
114 1 2 -0.83400 6.84966735	12.42804849	10.48476021       # O_w
115 1 2 -0.83400 11.50753136	3.57711757	12.56054154   # O_w
116 1 2 -0.83400 8.25086420	10.43521043	11.57300811       # O_w
117 1 2 -0.83400 7.47522119	11.20976328	20.67399287       # O_w
118 1 2 -0.83400 1.29649801	4.41092510	18.40903964       # O_w
119 1 2 -0.83400 8.29055359	13.84695420	12.34986814       # O_w
120 1 2 -0.83400 11.42806843	12.37396856	10.02472251   # O_w
121 1 2 -0.83400 13.94388392	3.74158760	15.94694005   # O_w
122 1 2 -0.83400 2.03945871	11.36298002	24.49375895       # O_w
123 1 2 -0.83400 4.63711040	12.98097567	15.00887781       # O_w
124 1 2 -0.83400 8.52315223	1.46450194	23.35426776       # O_w
125 1 2 -0.83400 1.07627074	13.15110150	21.42802231       # O_w
126 1 2 -0.83400 14.53574050	3.14988614	18.73829621   # O_w
127 1 2 -0.83400 2.18362308	12.34156433	8.17249186        # O_w
128 1 2 -0.83400 13.31235478	5.72441140	21.49586429   # O_w
129 1 2 -0.83400 -0.03142716	13.14774884	12.58945634   # O_w
130 1 2 -0.83400 2.41987422	10.10704293	20.01840370       # O_w
131 1 2 -0.83400 12.97496135	11.67436962	16.84093603   # O_w
132 1 2 -0.83400 4.86115849	13.25688534	8.62762675        # O_w
133 1 2 -0.83400 6.47054788	11.45886621	24.89398821       # O_w
134 1 2 -0.83400 16.03792815	8.21953683	9.25533485    # O_w
135 1 2 -0.83400 1.49854357	8.47879980	21.83616696       # O_w
136 1 2 -0.83400 10.72348928	11.02587694	12.35323513   # O_w
137 1 2 -0.83400 6.55514451	13.32711636	18.88080275       # O_w
138 1 2 -0.83400 4.41934058	13.08130778	24.89319076       # O_w
139 1 2 -0.83400 14.36065611	6.52189355	24.26533499   # O_w
140 1 2 -0.83400 15.45240033	9.96937963	7.13829307    # O_w
141 1 2 -0.83400 2.60902999	3.52293560	15.73030057       # O_w
142 1 2 -0.83400 0.80775808	9.45247173	16.99301192       # O_w
143 1 2 -0.83400 7.46438151	6.30797901	10.81614331       # O_w
144 1 2 -0.83400 6.77819952	8.65450854	21.28773090       # O_w
145 1 2 -0.83400 8.64036888	1.32149187	16.24680926       # O_w
146 1 2 -0.83400 9.54132464	5.93707233	8.39775557        # O_w
147 1 2 -0.83400 0.07546689	1.88329341	9.21312928        # O_w
148 1 2 -0.83400 13.65336705	12.51243358	22.74814977   # O_w
149 1 2 -0.83400 13.97529205	8.46543287	18.09316244   # O_w
150 1 2 -0.83400 10.84578914	0.85933443	25.92995909   # O_w
151 1 2 -0.83400 0.82222670	10.85792305	14.63006145       # O_w
152 1 2 -0.83400 13.22084028	10.50803612	8.53101765    # O_w
153 1 2 -0.83400 7.86765461	4.25967623	7.20049386        # O_w
154 1 2 -0.83400 8.89153300	4.58167774	12.69811574       # O_w
155 1 2 -0.83400 9.58491901	4.29725522	20.92536555       # O_w
156 1 2 -0.83400 13.56816448	13.34198470	26.85927897   # O_w
157 1 2 -0.83400 16.66119288	13.83640060	8.43827764    # O_w
158 1 2 -0.83400 6.50916003	6.31394092	22.64660832       # O_w
159 1 2 -0.83400 12.98086931	9.64995821	21.82284666   # O_w
160 1 2 -0.83400 1.39061134	9.75106290	7.74101453        # O_w
161 1 2 -0.83400 11.72498138	5.32143576	16.32306872   # O_w
162 1 2 -0.83400 10.98242970	0.14300045	11.43750137   # O_w
163 1 2 -0.83400 5.33857567	5.82675511	7.68935776        # O_w
164 1 2 -0.83400 4.50575504	3.87496532	18.04076729       # O_w
165 1 2 -0.83400 1.99726139	0.38391793	11.15316759       # O_w
166 1 2 -0.83400 10.51418585	13.04718349	20.26918568   # O_w
167 1 2 -0.83400 11.81238892	0.89117016	19.39164072   # O_w
168 1 2 -0.83400 15.61460838	10.89214938	17.95573592   # O_w
169 1 2 -0.83400 1.93681839	8.38263665	24.64276320       # O_w
170 1 2 -0.83400 1.46147153	12.46122529	18.79893164       # O_w
171 1 2 -0.83400 14.98920602	12.01263884	10.40359794   # O_w
172 1 2 -0.83400 8.90715291	4.39598388	17.16177511       # O_w
173 1 2 -0.83400 0.42943981	5.96003079	25.66042236       # O_w
174 1 2 -0.83400 4.11481965	8.24994404	18.61950630       # O_w
175 1 2 -0.83400 3.46036560	6.31191474	16.48873073       # O_w
176 1 2 -0.83400 0.67931462	11.01931738	10.25574555       # O_w
177 1 2 -0.83400 2.95122048	0.31992432	13.89741537       # O_w
178 1 2 -0.83400 9.70703371	6.53437129	25.25493587       # O_w
179 1 2 -0.83400 6.09873342	3.72010140	11.79079946       # O_w
180 1 2 -0.83400 4.67008390	6.34541223	10.95959497       # O_w
181 1 2 -0.83400 8.03957462	14.47365456	7.77814007        # O_w
182 1 2 -0.83400 3.72026543	10.19816251	16.65403833       # O_w
183 1 2 -0.83400 14.21107191	3.20863064	7.16980696    # O_w
184 1 2 -0.83400 7.30357050	6.23814156	18.55517899       # O_w
185 1 2 -0.83400 12.46073303	7.09629235	26.02030676   # O_w
186 1 2 -0.83400 3.25360377	0.92069401	20.66392142       # O_w
187 1 2 -0.83400 13.60605286	1.31803863	14.12654817   # O_w
188 1 2 -0.83400 12.39700783	13.49222777	15.11387486   # O_w
189 1 2 -0.83400 9.31362405	13.65456959	17.86857803       # O_w
190 1 2 -0.83400 13.80951566	5.62715499	18.40868522   # O_w
191 1 2 -0.83400 14.94603246	7.87217169	20.70178534   # O_w
192 1 2 -0.83400 8.19067368	1.91562475	12.94875004       # O_w
193 1 2 -0.83400 5.64079064	14.09933692	21.56234765       # O_w
194 1 2 -0.83400 9.07629567	11.87539827	8.33954202        # O_w
195 1 2 -0.83400 5.53232652	1.63958389	19.14280805       # O_w
196 1 2 -0.83400 5.50133918	8.53301091	7.98343810        # O_w
197 1 2 -0.83400 13.41745254	2.14969900	24.01298765   # O_w
198 1 2 -0.83400 14.13601891	10.31034556	26.39714428   # O_w
199 1 2 -0.83400 1.87895067	9.52885416	12.17788563       # O_w
200 1 2 -0.83400 7.37906112	3.93497801	22.57079189       # O_w
201 1 2 -0.83400 3.25808103	13.54221162	17.16960190       # O_w
202 1 2 -0.83400 13.44850721	11.21616249	13.69843784   # O_w
203 1 2 -0.83400 14.84935060	14.17133173	24.57252888   # O_w
204 1 2 -0.83400 10.90434698	10.34209383	20.19626368   # O_w
205 1 2 -0.83400 2.97902662	8.18845909	14.28990645       # O_w
206 1 2 -0.83400 10.10269884	1.42711245	9.04640401    # O_w
207 1 2 -0.83400 14.90513118	3.06991781	10.78731711   # O_w
208 1 2 -0.83400 11.29799228	6.38955078	19.94341424   # O_w
209 1 2 -0.83400 0.56562927	1.51935444	13.49934217       # O_w
210 1 2 -0.83400 12.33294600	3.36544785	20.35787939   # O_w
211 1 2 -0.83400 6.92736294	11.84340219	13.68340451       # O_w
212 1 2 -0.83400 8.51921359	3.35767842	10.11043318       # O_w
213 1 2 -0.83400 11.36801257	9.56313879	17.44537052   # O_w
214 1 2 -0.83400 4.15587241	2.72559922	13.42739482       # O_w
215 1 2 -0.83400 3.73492592	11.95180986	21.69587555       # O_w
216 1 2 -0.83400 4.01562985	1.47660069	8.29748413        # O_w
217 1 2 -0.83400 12.05459852	8.14980142	8.67768863    # O_w
218 1 2 -0.83400 2.06075094	5.83010777	11.05245312       # O_w
219 1 2 -0.83400 0.29128271	7.07433969	18.53887565       # O_w
220 1 2 -0.83400 13.72273089	7.64570652	15.45131263   # O_w
221 1 2 -0.83400 15.45603600	12.36468314	20.51633485   # O_w
222 1 2 -0.83400 2.25751468	5.87289068	7.93774740        # O_w
223 1 2 -0.83400 16.43833984	4.53969655	15.74589507   # O_w
224 1 2 -0.83400 4.98096725	9.87420771	13.37257780       # O_w
225 1 2 -0.83400 9.47763311	1.17836227	20.82586202       # O_w
226 1 2 -0.83400 1.70751878	14.33147246	23.70892446       # O_w
227 1 2 -0.83400 3.81640867	2.34361417	23.78034018       # O_w
228 1 2 -0.83400 4.38773046	4.38359360	26.88819377       # O_w
229 1 2 -0.83400 8.11255730	1.06819665	26.10840977       # O_w
230 1 2 -0.83400 12.04392716	1.01120136	7.22264513    # O_w
231 1 2 -0.83400 13.73474880	0.80762906	11.48174486   # O_w
232 1 2 -0.83400 5.25093249	3.66631301	21.03148493       # O_w
233 1 2 -0.83400 9.49751147	10.52669443	23.16985100       # O_w
234 1 2 -0.83400 7.38895822	8.94355191	17.65465578       # O_w
235 1 2 -0.83400 2.55759201	1.62948216	17.62069049       # O_w
236 1 2 -0.83400 0.70798927	13.52237260	26.10436347       # O_w
237 1 2 -0.83400 13.52026117	14.41110551	17.64018361   # O_w
238 1 2 -0.83400 8.08577791	2.55276210	18.88907256       # O_w
239 1 2 -0.83400 3.86921003	6.46698274	23.24300928       # O_w
240 1 2 -0.83400 9.99751692	7.38778462	17.73496154       # O_w
241 1 2 -0.83400 13.95251863	14.33932935	8.83528758    # O_w
242 1 2 -0.83400 9.84685548	12.92389292	15.04473334       # O_w
243 1 2 -0.83400 7.60361416	13.09914978	22.83037531       # O_w
244 1 2 -0.83400 6.23241158	6.00051057	16.08947613       # O_w
245 1 2 -0.83400 15.23904043	3.93435120	24.68620923   # O_w
246 1 2 -0.83400 4.78640847	9.29722881	23.24717372       # O_w
247 1 2 -0.83400 16.77436990	2.19256937	17.67630496   # O_w
248 1 2 -0.83400 8.03740331	8.53952674	24.21607055       # O_w
249 1 2 -0.83400 10.73200618	1.35779102	14.40695379   # O_w
250 1 2 -0.83400 3.68505330	5.88350259	19.92551601       # O_w
251 1 2 -0.83400 10.97248210	12.69302556	22.93554957   # O_w
252 1 2 -0.83400 16.05969167	13.99090010	16.82407152   # O_w
253 1 2 -0.83400 12.36238482	10.06405595	24.53959732   # O_w
254 1 2 -0.83400 14.95732659	1.78367556	21.51222670   # O_w
255 1 2 -0.83400 13.14247142	8.49202095	12.96266105   # O_w
256 1 2 -0.83400 9.81014532	9.22226033	7.65896621        # O_w
257 1 2 -0.83400 0.47251239	3.20855776	20.89116398       # O_w
258 1 2 -0.83400 5.92529855	3.39620490	9.15095803        # O_w
259 1 2 -0.83400 2.59842596	3.07139007	10.11341622       # O_w
260 1 2 -0.83400 0.71399654	5.85262893	22.14935647       # O_w
261 1 2 -0.83400 7.65804821	8.78043752	9.54637308        # O_w
262 1 2 -0.83400 16.18621631	5.12752059	7.52248481    # O_w
263 1 2 -0.83400 2.54214042	4.62396504	24.71409031       # O_w
264 1 2 -0.83400 13.90626484	7.14650943	10.66654836   # O_w
265 1 2 -0.83400 2.65870063	8.28220249	9.54182469        # O_w
266 1 2 -0.83400 6.33267861	3.29705351	15.71089605       # O_w
267 1 2 -0.83400 16.33588468	10.55023596	23.07702239   # O_w
268 1 2 -0.83400 16.44993695	1.60489110	25.70286421   # O_w
269 1 2 -0.83400 12.76846883	5.86192893	7.24264035    # O_w
270 1 2 -0.83400 4.79750063	1.15928270	25.93421214       # O_w
271 1 2 -0.83400 6.25476421	9.25362960	26.31394408       # O_w
272 1 2 -0.83400 11.24673945	12.43887905	25.85443801   # O_w
273 1 2 -0.83400 12.81394835	4.55288856	10.50268798   # O_w 
274 1 1 0.417000 15.29547746	9.10096677	25.85237056   # H_W
275 1 1 0.417000 15.36977302	7.92960428	24.87963418   # H_W
276 1 1 0.417000 1.86370106	6.66031484	14.13700357       # H_W
277 1 1 0.417000 1.99369305	5.68995184	13.01192548       # H_W
278 1 1 0.417000 -0.08016986	8.13166788	16.05722387   # H_W
279 1 1 0.417000 15.47370939	7.60139305	15.39191767   # H_W
280 1 1 0.417000 15.63340950	4.63150124	13.75390463   # H_W
281 1 1 0.417000 0.11872007	4.61903808	13.01638527       # H_W
282 1 1 0.417000 5.93669368	14.61193009	15.99257168       # H_W
283 1 1 0.417000 4.84868613	0.15984773	16.95414382       # H_W
284 1 1 0.417000 7.35640552	13.05966123	11.07268462       # H_W
285 1 1 0.417000 7.45391213	11.62638280	10.48428765       # H_W
286 1 1 0.417000 11.51199179	2.71417101	13.02261717   # H_W
287 1 1 0.417000 10.55730892	3.85737112	12.55944875   # H_W
288 1 1 0.417000 9.13460103	10.63884833	11.81705611       # H_W
289 1 1 0.417000 7.71172482	10.88069202	12.16855256       # H_W
290 1 1 0.417000 8.42364263	11.16240325	20.34517932       # H_W
291 1 1 0.417000 7.58681603	11.81357806	21.44618636       # H_W
292 1 1 0.417000 0.75867487	3.83901893	17.89456887       # H_W
293 1 1 0.417000 0.89701038	4.09887955	19.24458578       # H_W
294 1 1 0.417000 8.18062510	0.26211856	12.47976322       # H_W
295 1 1 0.417000 9.26141181	13.73453792	12.14073056       # H_W
296 1 1 0.417000 11.59174086	13.04470544	10.70981718   # H_W
297 1 1 0.417000 10.96292164	11.72366836	10.61846532   # H_W
298 1 1 0.417000 14.82979204	4.28654127	15.92127411   # H_W
299 1 1 0.417000 14.05147278	3.25712765	16.74639438   # H_W
300 1 1 0.417000 2.01119812	10.36976060	24.78358624       # H_W
301 1 1 0.417000 1.14988462	11.55610804	24.08085916       # H_W
302 1 1 0.417000 4.02163881	12.92128367	15.78068734       # H_W
303 1 1 0.417000 4.04151716	13.37782905	14.27301241       # H_W
304 1 1 0.417000 8.25293451	2.30132688	23.04793038       # H_W
305 1 1 0.417000 8.27979807	1.48049269	24.26949943       # H_W
306 1 1 0.417000 1.91500438	12.67465879	21.48159887       # H_W
307 1 1 0.417000 1.19692445	13.65162508	22.23178876       # H_W
308 1 1 0.417000 13.77113915	3.18520572	19.38620627   # H_W
309 1 1 0.417000 14.50216106	4.08825306	18.57030093   # H_W
310 1 1 0.417000 1.57004842	13.05327659	8.19650384        # H_W
311 1 1 0.417000 3.01388528	12.67996475	8.50709427        # H_W
312 1 1 0.417000 12.54273756	5.86838645	20.93546653   # H_W
313 1 1 0.417000 13.97349105	6.34538308	21.19847602   # H_W
314 1 1 0.417000 0.18612941	12.26876780	12.83970670       # H_W
315 1 1 0.417000 16.11670098	12.98291438	11.88977136   # H_W
316 1 1 0.417000 2.68771866	10.75541900	20.68462548       # H_W
317 1 1 0.417000 2.05304197	9.46878317	20.61524768       # H_W
318 1 1 0.417000 12.29929923	11.03137240	17.03114165   # H_W
319 1 1 0.417000 12.73116956	12.21153928	16.06339670   # H_W
320 1 1 0.417000 5.66925321	13.54573921	8.12804163        # H_W
321 1 1 0.417000 5.25726124	12.75869404	9.39742790        # H_W
322 1 1 0.417000 7.05501531	11.81518151	24.18854389       # H_W
323 1 1 0.417000 5.85718026	12.16635120	24.83686745       # H_W
324 1 1 0.417000 16.77706299	8.81715648	9.44660373    # H_W
325 1 1 0.417000 15.87095670	8.59757156	8.37758314    # H_W
326 1 1 0.417000 1.29514642	7.57097127	21.67165682       # H_W
327 1 1 0.417000 1.46696375	8.39349636	22.78695881       # H_W
328 1 1 0.417000 11.10015131	10.36723881	12.94098233   # H_W
329 1 1 0.417000 11.31448745	11.78946803	12.50755569   # H_W
330 1 1 0.417000 6.77567475	12.45590475	19.28540320       # H_W
331 1 1 0.417000 5.88843691	13.13809899	18.26071469       # H_W
332 1 1 0.417000 3.60584285	13.50706696	24.45494991       # H_W
333 1 1 0.417000 3.87560611	12.35233659	25.20534654       # H_W
334 1 1 0.417000 14.74006172	5.62921032	24.48286052   # H_W
335 1 1 0.417000 14.13938527	6.36022226	23.38025859   # H_W
336 1 1 0.417000 15.03502218	9.84536022	6.27002212    # H_W
337 1 1 0.417000 14.76623517	10.36669947	7.71966070    # H_W
338 1 1 0.417000 2.74152992	4.45146318	15.71653724       # H_W
339 1 1 0.417000 2.85763568	3.39269189	14.78639039       # H_W
340 1 1 0.417000 1.00638679	8.83721415	17.75442512       # H_W
341 1 1 0.417000 0.20753778	10.09816566	17.36095939       # H_W
342 1 1 0.417000 6.50239365	6.22169893	10.70981718       # H_W
343 1 1 0.417000 7.59521510	7.26200142	10.90852890       # H_W
344 1 1 0.417000 6.12490687	9.01782071	21.90383173       # H_W
345 1 1 0.417000 7.27337425	9.50779068	21.27414478       # H_W
346 1 1 0.417000 8.94640467	1.97773649	16.92147807       # H_W
347 1 1 0.417000 7.73581112	1.57506697	16.14458851       # H_W
348 1 1 0.417000 9.34090840	5.98430116	9.31989843        # H_W
349 1 1 0.417000 9.03561321	5.17753359	8.11102945        # H_W
350 1 1 0.417000 16.28988337	2.48506744	9.65958087    # H_W
351 1 1 0.417000 0.90456450	2.21097987	9.54971054        # H_W
352 1 1 0.417000 12.64751551	12.59100254	22.67871291   # H_W
353 1 1 0.417000 13.75779153	11.58336666	22.40403708   # H_W
354 1 1 0.417000 14.34347085	9.41285199	18.21791843   # H_W
355 1 1 0.417000 13.77341144	8.43378664	17.12086909   # H_W
356 1 1 0.417000 10.78751745	14.43310191	25.93117003   # H_W
357 1 1 0.417000 9.97130981	1.15201617	25.60412859       # H_W
358 1 1 0.417000 0.70021971	10.37607235	15.42245690       # H_W
359 1 1 0.417000 1.37388053	10.37567878	14.03490096       # H_W
360 1 1 0.417000 12.85321694	9.60670885	8.65042780    # H_W
361 1 1 0.417000 12.41362082	10.97421676	8.89790185    # H_W
362 1 1 0.417000 7.22814720	4.84079494	6.80865255        # H_W
363 1 1 0.417000 7.29855462	3.65188197	7.72078303        # H_W
364 1 1 0.417000 8.97214049	5.23906226	13.44963470       # H_W
365 1 1 0.417000 8.13122377	4.95096639	12.21917561       # H_W
366 1 1 0.417000 9.15330116	4.40623137	21.78264948       # H_W
367 1 1 0.417000 9.22675513	3.42996477	20.65257997       # H_W
368 1 1 0.417000 13.27204262	14.00610370	27.45322852   # H_W
369 1 1 0.417000 12.72899825	12.99628131	26.44865338   # H_W
370 1 1 0.417000 15.69063762	13.90010121	8.49194280    # H_W
371 1 1 0.417000 -0.07201267	0.18855382	8.64868523    # H_W
372 1 1 0.417000 6.61944199	7.16336021	22.16805215       # H_W
373 1 1 0.417000 5.51557888	6.40022100	22.76926732       # H_W
374 1 1 0.417000 13.59366465	9.00158215	21.39934379   # H_W
375 1 1 0.417000 12.17568649	9.71794441	21.26992127   # H_W
376 1 1 0.417000 1.71815648	10.64963516	7.73661381        # H_W
377 1 1 0.417000 0.59371650	9.69568564	7.17400093        # H_W
378 1 1 0.417000 12.33319848	4.61881942	16.25310023   # H_W
379 1 1 0.417000 10.94366606	4.91580715	15.96793946   # H_W
380 1 1 0.417000 10.76504700	0.69002490	10.66244299   # H_W
381 1 1 0.417000 11.90555294	0.24811900	11.44633235   # H_W
382 1 1 0.417000 5.36969767	6.78649162	8.00647543        # H_W
383 1 1 0.417000 4.39224138	5.68603068	7.62319928        # H_W
384 1 1 0.417000 4.14057230	4.56420016	18.64198246       # H_W
385 1 1 0.417000 3.65675905	3.63603699	17.58013888       # H_W
386 1 1 0.417000 1.69438998	14.11280588	10.88764763       # H_W
387 1 1 0.417000 2.13506333	0.30166688	12.07076206       # H_W
388 1 1 0.417000 11.32361028	13.57866820	20.14714692   # H_W
389 1 1 0.417000 9.97736925	13.39731823	19.49347752       # H_W
390 1 1 0.417000 12.41444558	0.58494075	18.76537984   # H_W
391 1 1 0.417000 11.98442675	1.85865861	19.52106324   # H_W
392 1 1 0.417000 14.92149169	11.40899898	17.52827536   # H_W
393 1 1 0.417000 15.71135757	11.34838864	18.84202325   # H_W
394 1 1 0.417000 1.01380624	8.39002708	24.92118997       # H_W
395 1 1 0.417000 2.43153866	7.99065192	25.38090279       # H_W
396 1 1 0.417000 1.35101116	13.03559494	19.61132231       # H_W
397 1 1 0.417000 1.33861117	11.56103500	19.13424289       # H_W
398 1 1 0.417000 14.62350150	11.31066388	9.77202075    # H_W
399 1 1 0.417000 14.94239679	12.82990171	9.90832494    # H_W
400 1 1 0.417000 8.28595850	5.09362953	17.53840588       # H_W
401 1 1 0.417000 8.60104980	3.61867602	17.64242827       # H_W
402 1 1 0.417000 -0.03084512	5.12029050	25.67046428   # H_W
403 1 1 0.417000 16.49826105	6.58329103	25.68180573   # H_W
404 1 1 0.417000 3.63354799	8.70010477	19.27016312       # H_W
405 1 1 0.417000 4.20192422	8.94537401	17.92838648       # H_W
406 1 1 0.417000 3.61097655	6.80580588	17.29943791       # H_W
407 1 1 0.417000 3.32279930	6.94446040	15.78228223       # H_W
408 1 1 0.417000 16.74067263	11.57527654	10.20036736   # H_W
409 1 1 0.417000 1.07147536	11.24584086	9.38927623        # H_W
410 1 1 0.417000 2.11511765	0.73213436	13.86590149       # H_W
411 1 1 0.417000 3.49700843	1.12955477	13.76778610       # H_W
412 1 1 0.417000 9.88503000	5.62746110	25.36923645       # H_W
413 1 1 0.417000 10.54406230	6.91169176	25.57666100   # H_W
414 1 1 0.417000 6.02987453	3.58389578	10.84009622       # H_W
415 1 1 0.417000 5.61858949	4.54361771	11.81856240       # H_W
416 1 1 0.417000 4.08755213	7.06856728	11.34901441       # H_W
417 1 1 0.417000 3.99953865	5.66429667	10.88088410       # H_W
418 1 1 0.417000 8.24180869	14.59006489	6.84952904        # H_W
419 1 1 0.417000 8.09299875	13.48560991	7.85679187        # H_W
420 1 1 0.417000 3.48344200	10.58173642	15.80145047       # H_W
421 1 1 0.417000 2.83501374	10.08831174	17.08132168       # H_W
422 1 1 0.417000 14.89851628	2.72167806	7.65329548    # H_W
423 1 1 0.417000 13.55160198	2.43407779	7.09703263    # H_W
424 1 1 0.417000 7.07531446	6.02677796	19.47150345       # H_W
425 1 1 0.417000 7.17842606	7.25315330	18.46976367       # H_W
426 1 1 0.417000 13.06238572	6.64760387	26.61868657   # H_W
427 1 1 0.417000 13.03691920	7.04696446	25.23260738   # H_W
428 1 1 0.417000 3.77293213	1.33764588	19.93709375       # H_W
429 1 1 0.417000 2.33559740	1.07179129	20.37025457       # H_W
430 1 1 0.417000 12.66417899	1.27956171	14.41560756   # H_W
431 1 1 0.417000 13.86667645	2.07782080	14.62087605   # H_W
432 1 1 0.417000 12.72064968	14.35534925	15.47316856   # H_W
433 1 1 0.417000 11.46519938	13.66789279	14.87688573   # H_W
434 1 1 0.417000 8.34557674	13.57299782	17.97927535       # H_W
435 1 1 0.417000 9.35120946	0.05950570	17.84252813       # H_W
436 1 1 0.417000 12.99507535	5.53371770	18.04826919   # H_W
437 1 1 0.417000 13.97843960	6.53727207	18.30492864   # H_W
438 1 1 0.417000 14.60061026	8.23634388	19.82828668   # H_W
439 1 1 0.417000 15.73318841	7.51985043	20.15751371   # H_W
440 1 1 0.417000 8.25254738	2.80392036	12.58390376       # H_W
441 1 1 0.417000 7.53569785	2.04728241	13.66405906       # H_W
442 1 1 0.417000 5.94775218	14.17927609	20.60786393       # H_W
443 1 1 0.417000 4.83517020	0.12786405	21.47982676       # H_W
444 1 1 0.417000 9.84591290	12.35592248	8.68111470        # H_W
445 1 1 0.417000 9.35637683	10.97045595	8.08958702        # H_W
446 1 1 0.417000 5.82654638	1.00841865	18.44752379       # H_W
447 1 1 0.417000 5.16088236	2.46742951	18.69148318       # H_W
448 1 1 0.417000 5.75767066	9.35833475	7.57806975        # H_W
449 1 1 0.417000 6.27940596	8.43321814	8.51128825        # H_W
450 1 1 0.417000 13.75309546	1.36103290	24.53162286   # H_W
451 1 1 0.417000 12.46260136	2.15176891	24.25476144   # H_W
452 1 1 0.417000 13.95536320	11.11183633	26.86929135   # H_W
453 1 1 0.417000 13.60245085	10.39733990	25.61691726   # H_W
454 1 1 0.417000 1.41477338	10.28925293	11.83811459       # H_W
455 1 1 0.417000 2.11363645	8.99129093	11.30804932       # H_W
456 1 1 0.417000 6.54514642	3.78187788	22.05053225       # H_W
457 1 1 0.417000 7.14898725	4.81385701	22.87624322       # H_W
458 1 1 0.417000 2.79052729	12.85984246	17.70926606       # H_W
459 1 1 0.417000 2.66531553	14.29236290	17.23652829       # H_W
460 1 1 0.417000 13.11416033	11.71359579	14.47461856   # H_W
461 1 1 0.417000 14.34380748	10.93793511	13.82800804   # H_W
462 1 1 0.417000 14.25636628	13.74114121	25.22888597   # H_W
463 1 1 0.417000 14.55598915	13.63973041	23.77960180   # H_W
464 1 1 0.417000 10.86073578	11.29346326	20.17458496   # H_W
465 1 1 0.417000 10.75010036	10.22960467	19.27320523   # H_W
466 1 1 0.417000 3.62886875	8.86773797	14.61739092       # H_W
467 1 1 0.417000 2.76176174	8.69036747	13.47022062       # H_W
468 1 1 0.417000 9.32000331	0.83346061	8.82181960        # H_W
469 1 1 0.417000 9.64322436	2.14225026	9.53887118        # H_W
470 1 1 0.417000 15.47761436	3.48598341	11.46316732   # H_W
471 1 1 0.417000 14.14291995	3.74529011	10.65071758   # H_W
472 1 1 0.417000 10.67459291	5.75391484	20.26038424   # H_W
473 1 1 0.417000 10.83437718	6.78203112	19.18253267   # H_W
474 1 1 0.417000 16.90602824	0.74854929	13.11677486   # H_W
475 1 1 0.417000 -0.11214288	2.24322375	13.36120681   # H_W
476 1 1 0.417000 12.74492114	3.88830309	21.09235664   # H_W
477 1 1 0.417000 11.50308777	3.86395984	20.26502124   # H_W
478 1 1 0.417000 6.17856665	12.26268927	14.17179584       # H_W
479 1 1 0.417000 7.39528698	12.61442745	13.27251310       # H_W
480 1 1 0.417000 8.60867461	4.08076058	10.79286970       # H_W
481 1 1 0.417000 7.51891655	3.34129410	9.97601924        # H_W